ITEM: TIMESTEP
0
ITEM: NUMBER OF ATOMS
5
ITEM: BOX BOUNDS pp pp pp
 0 1
 0 1
 0 1
ITEM: ATOMS x y z radius charge
 0.25 0.25 0.5 0.1 1
 0.75 0.25 0.51  0.1 1
 0.75 0.75 0.525 0.1 1
 0.25 0.75 0.55 0.1 1
 0.5  0.5 0.5  0.1 1
