ITEM: TIMESTEP
0
ITEM: NUMBER OF ATOMS
5
ITEM: BOX BOUNDS pp pp pp
-1.0000000000000000e+00 2.0000000000000000e+00
-2.0000000000000000e+00 1.0000000000000000e+00
 0.0000000000000000e+00 2.0000000000000000e+00
ITEM: ATOMS x y z
-0.5 -1.5 0.1
 0.1  0.9 0.9
 0.99 0.8 0.1
 0.99 0.8 1.1
 2.1  0.0 0.0
