ITEM: TIMESTEP
0
ITEM: NUMBER OF ATOMS
1
ITEM: BOX BOUNDS pp pp pp
0 1
0 1
0 1
ITEM: ATOMS x y z r
0 0 0 1
