ITEM: TIMESTEP
5
ITEM: NUMBER OF ATOMS
2
ITEM: BOX BOUNDS pp pp pp
 0.0 2.0
 0.0 2.0
 0.0 2.0
ITEM: ATOMS x y z
 1.5 1.5 1.5
 1.4 1.4 1.4
